<?xml version="1.0" ?>
<VTKFile byte_order="LittleEndian" type="UnstructuredGrid" version="0.1">
<UnstructuredGrid>
<Piece NumberOfCells="13666" NumberOfPoints="24924">
<Points>
<DataArray NumberOfComponents="3" format="ascii" type="Float32">18.142664595130718 93.86328840682502 18.239999189973 14.285911964569934 89.26698960360704 18.239999189973 -15.00612188196422 75.5699022275389 25.000000372529 -8.578251915199708 83.23033935315893 25.000000372529 -12.408470478011253 86.44427433654246 25.000000372529 -6.044851625461995 94.0281399659683 25.000000372529 -7.981451907821111 69.6755042430933 25.000000372529 -9.875070188273554 97.24207494935183 25.000000372529 3.587870584298635 106.07621069317551 18.239999189973 8.184078067902455 102.21953468886929 18.239999189973 -6.044851625461995 94.0281399659683 6.250000093132 -12.408470478011253 86.44427433654246 6.250000093132 -8.578251915199708 83.23033935315893 6.250000093132 -15.00612188196422 75.5699022275389 6.250000093132 -7.981451907821111 69.6755042430933 6.250000093132 10.865809787460392 92.13679607900826 6.250000093132 14.285911964569934 89.26698960360704 6.250000093132 18.142664595130718 93.86328840682502 6.250000093132 8.184078067902455 102.21953468886929 6.250000093132 3.587870584298635 106.07621069317551 6.250000093132 -9.875070188273554 97.24207494935183 6.250000093132 13.546457111526898 97.71996441113124 6.250000093132 13.546457111526898 97.71996441113124 18.239999189973 10.865809787460392 92.13679607900826 18.239999189973 10.865809787460392 92.13679607900826 25.000000372529 -3.819297312305821 104.45906403022096 25.000000372529 -3.819297312305821 104.45906403022096 6.250000093132 -0.2688820462621493 101.47991188995752 6.250000093132 -0.2688820462621493 101.47991188995752 18.239999189973 4.3273254373416705 97.6232358856513 18.239999189973 4.3273254373416705 97.6232358856513 6.250000093132 9.689704480966114 93.12366560791327 6.250000093132 9.689704480966114 93.12366560791327 18.239999189973 -20.90716185045602 69.82865187091521 6.250000093132 -11.45818686921151 81.08950175114616 6.250000093132 -18.482765523748107 86.9838231093436 6.250000093132 -18.482765523748107 86.9838231093436 25.000000372529 -11.45818686921151 81.08950175114616 25.000000372529 -20.90716185045602 69.82865187091521 25.000000372529 -16.387571522851957 66.03626529395024 25.000000372529 -16.387571522851957 66.03626529395024 6.250000093132 -32.75603782963623 69.973599560726 6.250000093132 -32.75603782963623 69.973599560726 25.000000372529 -21.211868847495563 60.286891625563584 6.250000093132 -21.211868847495563 60.286891625563584 25.000000372529 -23.251731019979303 17.078394117710346 18.239999189973 3.8476019694502837 -2.0404191991030523 18.239999189973 7.5019080361960855 2.314613184380074 18.239999189973 -0.711768241637557 -0.660013775946778 25.000000372529 -0.711768241637557 -0.660013775946778 18.239999189973 4.146642784907821 5.130015019238 18.239999189973 5.143243848109967 6.317717916692367 25.000000372529 -1.881426126036204 12.212115901140532 25.000000372529 -7.736438215783728 5.234384208501386 25.000000372529 -7.736438215783728 5.234384208501386 18.239999189973 -2.8780271892383498 11.024413003686163 18.239999189973 -9.904274528456313 7.053414858917666 25.000000372529 -9.904274528456313 7.053414858917666 18.239999189973 -5.045863501910934 12.843443654102444 18.239999189973 -4.049262438708788 14.031146551556812 25.000000372529 -16.928944502599414 12.947812843363259 18.239999189973 -16.928944502599414 12.947812843363259 25.000000372529 -11.073932412851892 19.925544536002405 25.000000372529 -15.724839542799838 14.38280925506491 18.239999189973 -17.816058699478788 16.13755047814508 18.239999189973 -19.598672507996252 14.013114067636346 18.239999189973 -19.598672507996252 14.013114067636346 25.000000372529 -13.165151569530842 21.680285759082572 25.000000372529 -20.18982154367395 27.57468374352817 25.000000372529 -26.62334248213936 19.90751205208194 25.000000372529 -25.325831528895346 14.606577384808169 18.239999189973 6.843785432551484 -12.386936342656234 18.239999189973 10.700499749984992 -7.790683199245325 18.239999189973 -25.518287254205195 18.980260617891858 18.239999189973 -29.24038861398051 14.54443295037983 18.239999189973 -34.637859656647166 7.800032277404055 18.239999189973 -38.895454012178064 11.372578130832503 18.239999189973 -39.951057291176596 10.114559130731768 18.239999189973 -37.08380405618469 7.7086479987581935 18.239999189973 -56.461319431106595 -15.384575564854533 18.239999189973 -59.34592339272237 -12.964105444570219 18.239999189973 -61.26307396174661 -15.24887652274889 18.239999189973 -63.14051390245171 -13.673517360945745 18.239999189973 -66.9441645387937 -18.206531671779558 18.239999189973 -71.54037202239752 -14.349855667473335 18.239999189973 -67.68365770496723 -9.75360252406626 18.239999189973 -65.76631109302187 -11.362447358988607 18.239999189973 -42.91774133847548 15.867417731631473 18.239999189973 -39.127008704569974 12.686615376629678 18.239999189973 -36.31716227314277 16.03525995592107 18.239999189973 -40.147801578288515 19.24954798404206 18.239999189973 -36.29104894773351 23.845846787253162 18.239999189973 -33.18088553996159 21.236109818890665 18.239999189973 -31.125673402726072 23.685416266984312 18.239999189973 -26.62334248213936 19.90751205208194 18.239999189973 -33.361730686669496 18.002649563528564 18.239999189973 -33.361730686669496 18.002649563528564 6.250000093132 -25.518287254205195 18.980260617891858 6.250000093132 -23.251731019979303 17.078394117710346 6.250000093132 -25.325831528895346 14.606577384808169 6.250000093132 -27.592387763121238 16.50844388498968 6.250000093132 3.8476019694502837 -2.0404191991030523 6.250000093132 7.5019080361960855 2.314613184380074 6.250000093132 4.146642784907821 5.130015019238 6.250000093132 5.143243848109967 6.317717916692367 6.250000093132 -1.881426126036204 12.212115901140532 6.250000093132 -2.8780271892383498 11.024413003686163 6.250000093132 -5.045863501910934 12.843443654102444 6.250000093132 -4.049262438708788 14.031146551556812 6.250000093132 -11.073932412851892 19.925544536002405 6.250000093132 -15.724839542799838 14.38280925506491 6.250000093132 -17.816058699478788 16.13755047814508 6.250000093132 -13.165151569530842 21.680285759082572 6.250000093132 -20.18982154367395 27.57468374352817 6.250000093132 -26.62334248213936 19.90751205208194 6.250000093132 -31.125673402726072 23.685416266984312 6.250000093132 -33.18088553996159 21.236109818890665 6.250000093132 -36.29104894773351 23.845846787253162 6.250000093132 -40.147801578288515 19.24954798404206 6.250000093132 -36.31716227314277 16.03525995592107 6.250000093132 -39.127008704569974 12.686615376629678 6.250000093132 -42.91774133847548 15.867417731631473 6.250000093132 -65.76631109302187 -11.362447358988607 6.250000093132 -67.68365770496723 -9.75360252406626 6.250000093132 -71.54037202239752 -14.349855667473335 6.250000093132 -66.9441645387937 -18.206531671779558 6.250000093132 -63.14051390245171 -13.673517360945745 6.250000093132 -61.26307396174661 -15.24887652274889 6.250000093132 -59.34592339272237 -12.964105444570219 6.250000093132 -56.461319431106595 -15.384575564854533 6.250000093132 -37.08380405618469 7.7086479987581935 6.250000093132 -39.951057291176596 10.114559130731768 6.250000093132 -38.895454012178064 11.372578130832503 6.250000093132 -34.637859656647166 7.800032277404055 6.250000093132 -30.78114533921044 12.396285420818792 6.250000093132 -29.5584670296643 11.370336502230167 6.250000093132 -31.698370119892346 8.82009930664744 6.250000093132 -27.8681515570808 5.606164323263899 6.250000093132 -26.9251505587541 6.729989150839668 6.250000093132 -24.871007165291363 5.006358186999838 6.250000093132 -25.865615945882364 3.821029599504767 6.250000093132 -22.035306063464304 0.6070179898730821 6.250000093132 -21.788761090309237 0.9008388473666784 6.250000093132 -18.43103020944214 -1.9166318963614657 6.250000093132 -17.39875962486743 -0.6864197186652312 6.250000093132 -15.994172644571133 -1.8650081357882637 6.250000093132 -16.776066943275055 -2.796833475297591 6.250000093132 -12.945848380470398 -6.010768458675349 6.250000093132 -11.810783675776872 -4.658051019029951 6.250000093132 -9.776821916973518 -6.364747580670537 6.250000093132 -8.523369649420783 -4.870941337669207 6.250000093132 -7.5698102418233955 -5.6710726848898005 6.250000093132 -9.958327214069657 -8.517596367536528 6.250000093132 -6.128108651258874 -11.731531350919427 6.250000093132 -4.950248183551057 -10.32781190695394 6.250000093132 -3.1777344791396582 -11.815127502582218 6.250000093132 -4.89764906964241 -13.864841894769071 6.250000093132 -0.4608856317827037 -17.587728459097992 6.250000093132 -1.7592791974751574 -19.13509365561318 6.250000093132 1.5914200731213253 -21.94666417775667 6.250000093132 7.652135342484492 -14.723784981802533 6.250000093132 10.700499749984992 -7.790683199245325 6.250000093132 6.02710281440579 -13.36022078684061 6.250000093132 -29.60812927986537 14.853004007492702 6.250000093132 6.843785432551484 -12.386936342656234 12.240000069141 6.02710281440579 -13.36022078684061 12.240000069141 7.652135342484492 -14.723784981802533 12.240000069141 1.5914200731213253 -21.94666417775667 12.240000069141 -1.7592791974751574 -19.13509365561318 12.240000069141 -0.4608856317827037 -17.587728459097992 12.240000069141 -4.89764906964241 -13.864841894769071 12.240000069141 -3.1777344791396582 -11.815127502582218 12.240000069141 -4.950248183551057 -10.32781190695394 12.240000069141 -6.128108651258874 -11.731531350919427 12.240000069141 -9.958327214069657 -8.517596367536528 12.240000069141 -7.5698102418233955 -5.6710726848898005 12.240000069141 -8.523369649420783 -4.870941337669207 12.240000069141 -9.776821916973518 -6.364747580670537 12.240000069141 -11.810783675776872 -4.658051019029951 12.240000069141 -12.945848380470398 -6.010768458675349 12.240000069141 -16.776066943275055 -2.796833475297591 12.240000069141 -15.994172644571133 -1.8650081357882637 12.240000069141 -17.39875962486743 -0.6864197186652
[...]
<CellData Scalars="humidite_relative">
<DataArray Name="GLO_Ciel_Net" format="ascii" type="Float32">5.588 11.118 1.916 2.517 1.681 -0.551 0.674 4.503 7.766 10.362 4.414 5.762 9.173 7.232 7.492 6.428 6.086 7.078 7.144 7.644 6.402 5.737 13.41 2.442 0.614 -0.262 -2.834 6.235 1.087 -0.005 -1.329 3.882 4.336 14.38 7.305 4.916 3.653 4.357 2.706 2.747 2.034 2.311 -0.373 -0.837 -1.442 -0.188 1.3 3.003 0.012 -0.069 -0.019 3.617 1.078 0.913 0.315 -0.107 0.029 0.362 2.9 0.021 11.086 13.682 5.761 3.815 -1.163 0.622 6.643 1.616 5.801 2.896 10.802 14.22 6.472 0.439 0.276 0.266 -1.004 -0.217 -0.387 -1.1 2.507 1.512 4.435 2.373 7.494 2.889 4.194 7.03 4.933 10.635 11.343 14.301 12.599 11.977 14.75 16.006 12.519 32.321 36.849 38.215 29.395 33.774 -0.719 0.351 1.03 1.584 4.696 0.105 7.302 8.562 9.633 4.986 -3.566 9.228 3.794 0.634 0.978 0.931 1.132 3.688 1.865 1.885 6.684 4.099 -2.413 -3.304 -0.362 -0.652 0.295 1.019 3.114 -1.897 1.353 0.818 6.077 3.285 1.511 -0.814 -0.883 2.302 3.618 4.782 1.816 0.926 1.564 1.22 0.964 0.521 42.448 43.626 44.712 45.601 46.807 47.166 46.907 46.733 46.4 45.669 46.831 46.161 44.372 42.436 46.054 47.02 47.242 47.158 46.951 46.199 45.76 45.527 44.208 46.532 44.686 45.253 45.969 9.424 9.529 9.447 9.521 9.394 9.6 9.229 9.445 9.254 9.198 9.375 9.443 9.247 9.267 4.927 7.048 4.983 7.713 27.613 34.435 8.184 4.474 7.909 4.981 -18.527 -17.816 -16.564 -15.782 -12.733 -10.308 -4.92 -3.721 -4.729 -4.323 -4.397 -6.596 -7.845 -5.61 -9.198 -8.384 -7.458 -11.769 -12.032 -12.393 -12.459 -10.529 -13.368 -12.438 -11.333 -10.676 -8.335 -10.119 -7.209 -6.23 -10.165 -6.203 -7.418 -6.499 -9.449 -9.915 -9.666 -7.969 -7.084 -9.974 -7.476 -6.414 -8.458 -7.619 -9.088 -10.125 -9.107 -9.426 5.073 3.235 0.241 4.073 7.272 6.991 2.506 6.169 10.042 7.404 9.308 6.368 6.84 7.106 7.705 6.051 5.022 7.571 12.727 7.347 11.592 10.772 13.467 12.088 17.053 17.87 14.276 7.791 12.322 12.139 17.383 6.113 6.733 8.404 13.644 12.631 3.583 2.317 4.045 2.033 2.882 0.325 2.001 4.824 7.986 9.55 12.872 5.377 2.947 1.153 2.34 14.098 14.065 3.896 6.28 2.961 1.203 5.661 2.645 3.259 -0.61 0.127 -0.453 -0.162 0.123 -0.073 1.362 4.358 0.44 9.694 0.034 -0.013 -0.039 7.818 6.385 -0.203 7.214 9.385 8.182 0.666 7.826 8.169 0.028 9.777 6.852 1.732 -1.825 -0.246 0.804 -16.912 -18.633 -16.499 -21.226 -16.698 -16.921 -10.76 -12.215 -11.252 -13.784 -19.202 -15.727 -18.451 -14.77 -16.338 -16.07 -14.663 -14.837 -11.895 -12.448 -10.932 -14.603 -13.286 8.743 8.614 8.573 8.609 8.677 8.665 8.801 8.76 8.944 8.884 9.1 9.1 9.12 9.024 9.149 9.078 9.044 9.24 8.97 9.109 9.335 9.092 9.046 9.101 9.032 9.329 8.766 9.032 9.12 8.703 8.781 8.765 8.902 8.867 8.949 8.667 8.733 8.766 8.843 8.85 8.917 8.757 8.886 8.93 8.855 8.803 8.893 8.817 47.11 47.014 46.951 46.964 46.912 46.904 46.984 47.016 46.941 46.992 47.069 47.118 47.086 46.917 46.917 47.088 47.07 46.952 47.063 47.044 47.15 47.021 47.01 47.071 47.021 46.995 47.024 13.088 10.817 5.472 13.428 11.254 7.182 4.405 9.721 9.719 0.727 3.019 5.323 8.036 -0.039 1.011 9.305 0.758 9.604 9.478 3.016 3.948 4.788 7.288 6.351 -0.31 -0.194 2.629 5.876 0.714 0.979 7.943 2.582 4.47 5.811 5.552 7.567 2.19 9.96 6.47 9.463 5.66 5.506 7.721 2.838 46.599 46.65 46.692 46.725 46.611 46.715 46.694 46.696 46.693 7.565 8.117 11.112 5.222 10.965 9.577 5.797 6.702 11.261 9.137 11.351 9.024 6.307 46.717 46.733 46.578 46.703 46.637 46.698 46.589 46.694 46.558 46.564 45.637 46.043 46.139 46.439 46.478 46.085 46.353 45.988 45.54 22.991 29.871 27.669 30.032 29.654 36.173 38.392 39.886 31.114 26.502 25.085 11.773 16.432 13.641 12.127 23.887 14.677 18.92 35.394 28.766 30.32 24.708 26.429 38.43 38.92 24.373 27.137 26.44 27.819 0.736 1.449 2.644 9.187 0.912 7.287 3.84 1.91 9.126 10.851 11.825 9.081 11.433 10.564 11.216 9.67 9.706 9.701 9.524 9.014 3.022 5.296 4.842 1.874 0.785 0.234 1.469 0.19 7.283 1.832 10.603 6.161 3.565 9.986 9.684 7.475 5.867 3.811 3.434 4.388 10.55 5.499 4.773 5.327 6.331 8.719 9.575 9.811 2.428 7.153 4.771 3.824 13.361 14.597 11.132 11.728 6.692 4.944 3.741 2.874 14.454 5.192 5.585 3.544 11.83 12.132 15.638 16.011 15.56 15.209 13.352 12.577 8.206 4.881 6.407 4.409 4.267 7.589 10.054 9.038 12.02 12.275 11.137 4.092 6.353 10.893 4.734 10.264 6.663 11.534 8.53 9.627 11.076 11.575 4.233 4.389 6.157 3.647 12.796 15.274 12.549 9.255 5.516 1.684 3.362 3.873 3.775 2.775 2.289 -0.373 6.634 9.104 7.659 4.912 0.993 3.669 5.535 7.884 2.624 4.482 6.875 6.849 3.75 3.116 3.545 5.293 15.204 5.836 8.163 13.549 8.538 -0.199 1.667 3.203 4.059 3.377 4.682 1.992 6.874 8.242 12.78 4.56 15.996 16.157 15.47 15.417 13.878 12.3 13.613 7.82 4.997 4.777 6.364 5.185 5.732 5.334 8.958 6.574 10.438 11.993 13.95 9.135 10.269 11.62 11.711 8.61 7.251 12.087 6.05 10.512 13.301 11.797 14.924 16.012 16.51 12.517 10.547 -1.152 2.835 3.502 -2.373 0.063 0.442 0.374 1.083 -0.012 4.425 5.479 4.059 10.611 3.198 2.74 5.554 1.971 2.614 -1.061 0.903 5.42 1.205 4.98 0.566 -0.369 6.436 3.339 3.917 -1.594 2.136 2.93 3.301 1.263 3.326 3.834 13.734 14.235 14.3 6.779 -0.557 0.096 1.422 -0.037 5.091 6.141 4.083 2.485 8.12 -1.707 7.896 8.929 3.353 3.526 0.359 0.694 1.143 0.143 4.548 2.323 2.166 0.179 2.822 -0.423 1.586 1.214 14.798 16.137 14.147 11.943 13.343 11.571 8.487 9.99 6.624 5.63 5.611 15.706 11.773 16.154 9.473 12.833 6.562 4.75 6.754 7.84 5.431 3.527 4.638 4.136 3.111 7.504 2.375 4.518 3.685 3.915 5.411 5.599 3.812 2.397 4.207 4.832 4.707 4.424 2.978 4.687 1.074 2.696 5.451 6.85 8.144 2.573 5.347 2.55 6.916 5.606 0.97 0.749 -0.086 -2.396 0.307 0.146 -1.415 -0.702 1.712 3.778 4.976 6.711 2.013 3.689 5.149 0.129 -1.139 -8.109 -0.053 -3.76 2.506 8.022 0.507 0.116 0.888 5.145 2.177 5.286 -0.995 -0.636 -0.393 -0.283 -1.078 -0.357 -0.801 -0.315 0.08 0.421 1.268 0.997 -0.986 0.263 1.135 7.371 4.983 0.597 -0.153 2.289 -3.431 -3.389 -3.146 -1.459 2.898 6.759 0.28 -0.21 0.314 0.406 -0.114 0.249 -0.107 0.782 0.336 0.142 0.55 0.952 0.621 2.02 0.938 2.712 2.419 3.699 3.124 3.318 4.82 -2.056 6.634 -3.494 -2.479 0.225 -3.197 6.093 -0.304 3.581 -0.919 6.569 0.01 -2.942 0.422 -1.608 -2.534 -0.291 3.249 0.201 -0.095 -0.672 0.298 -1.911 2.116 -1.641 -1.392 -1.182 -2.223 -0.202 3.131 5.207 1.242 -1.577 -1.832 -1.775 -1.746 4.219 -0.266 4.113 -0.883 -1.522 6.09 1.209 1.738 2.339 6.85 3.591 1.297 1.126 9.656 11.557 9.275 9.02 8.242 7.7 5.681 6.97 4.997 4.53 5.458 3.04 3.873 6.078 4.548 7.177 5.807 2.276 6.235 11.614 14.934 8.95 13.596 4.744 -2.316 4.935 8.055 16.693 9.575 0.984 3.046 11.053 2.571 5.008 3.66 0.621 6.641 9.679 11.714 7.029 4.992 3.967 11.046 6.249 4.703 3.465 7.825 9.148 5.613 2.204 1.084 4.524 0.716 2.66 12.141 5.933 3.892 4.115 6.647 13.723 8.356 6.111 5.4 6.877 3.09 0.89 0.298 -0.153 0.158 0.421 4.532 4.192 4.312 6.891 5.434 5.523 8.117 5.959 3.105 0.482 -1.149 0.838 2.8 -0.187 1.193 0.466 1.005 5.417 5.993 4.891 1.482 0.629 1.649 6.001 4.671 0.257 6.707 4.296 6.09 6.157 4.782 0.406 4.056 5.039 3.988 4.802 0.633 3.76 3.671 3.98 0.604 4.771 5.846 1.777 1.237 1.745 0.56 4.614 3.678 0.383 4.274 3.997 3.681 1.866 0.498 0.044 0.632 0.957 0.816 7.888 1.946 2.493 3.111 8.79 5.673 2.422 2.532 2.635 6.379 0.711 0.801 7.082 0.465 0.283 0.71 0.354 2.538 2.46 1.692 0.322 -0.32 0.046 6.083 3.508 3.543 3.054 4.369 3.609 8.656 4.366 4.396 4.695 3.947 3.67 2.122 6.148 4.362 3.145 1.76 5.257 4.714 0.839 1.997 3.243 0.829 -0.443 -0.453 -2.617 2.24 1.426 -0.104 -0.536 2.456 1.541 1.614 0.537 -2.223 -2.312 -1.902 -0.015 -0.106 -0.104 0.008 -0.209 -1.349 -0.383 -0.332 -1.262 -0.955 0.667 0.861 0.976 0.503 0.268 0.114 4.786 3.374 3.709 5.049 0.691 0.954 0.436 0.652 -0.756 -0.435 5.714 3.196 3.144 0.825 1.115 -0.399 0.739 -0.075 1.338 3.809 4.695 0.724 -0.81 0.789 -1.683 0.66 -1.332 0.251 4.489 1.2 0.229 3.436 0.786 -0.29 -0.338 1.872 0.226 1.788 5.193 0.212 -0.847 0.167 -0.196 -0.606 1.569 4.856 2.764 6.754 0.738 0.502 -2.351 -2.431 -0.294 -2.309 2.224 0.579 1.537 6.116 -1.379 -1.911 -0.722 -1.454 2.978 1.628 0.599 5.05 -2.974 0.839 -0.265 -2.995 2.816 2.235 1.501 1.804 -3.007 0.949 -1.701 1.318 -1.939 0.636 5.08 2.656 2.345 5.479 -0.216 -0.152 0.883 1.661 1.028 1.828 6.572 -0.326 0.667 0.602 -0.341 1.654 0.767 2.295 0.836 -0.038 0.288 0.512 0.18 2.768 1.392 0.349 0.93 0.25 7.684 9.349 0.352 1.04 0.664 5.644 0.432 2.184 2.037 2.461 2.458 2.068 5.886 0.597 1.981 2.029 6.29 8.809 6.174 4.858 6.412 0.274 1.638 0.083 0.122 0.117 0.024 6.708 7.399 8.655 6.62 8.562 5.509 4.233 -0.183 0.257 3.366 2.784 6.363 4.961 8.131 6.974 5.891 29.796 22.742 28.17 30.029 29.82 30.583 30.854 30.037 31.468 30.279 30.787 30.006 30.368 32.17 31.275 37.505 39.438 41.152 38.228 30.462 33.41 32.578 28.274 26.126 25.978 33.316 35.613 34.431 33.263 32.954 34.273 33.191 31.904 30.175 30.284 31.14 29.441 26.438 28.918 34.592 40.004 33.441 40.829 38.124 41.076 39.825 28.064 29.113 32.175 32.36 31.128 33.814 35.977 38.324 23.605 30.866 38.995 32.633 32.823 33.317 31.246 26.791 33.885 32.024 32.391 36.333 32.395 33.054 30.683 31.003 32.426 33.03 30.978 27.84 33.215 31.099 33.285 33.561 31.839 31.929 31.424 33.567 29.974 1.063 2.465 3.874 8.094 1.456 4.291 4.912 10.762 -3.891 -8.057 -5.454 -9.762 -2.046 -0.749 -1.131 -0.989 -1.672 -0.967 -1.478 -1.405 -1.864 -1.928 -1.569 -2.294 -3.034 -3.079 -2.903 -2.842 -2.736 -2.931 -2.364 -1.205 -0.526 -0.357 -0.395 -0.392 -0.511 -0.887 -1.939 -2.696 -1.317 -4.288 -5.85 -4.299 -0.483 -0.38 -0.33 -0.493 -1.234 -2.217 -3.738 -3.736 -7.694 -13.392 -14.034 -11.729 -12.669 -8.679 -5.301 -12.659 -7.693 -10.521 -12.477 -1.036 -3.342 -4.044 -4.079 -4.033 -2.223 -2.217 -0.786 -3.546 -6.467 -10.354 -9.73 -3.465 -3.794 -2.706 -0.523 -4.878 -0.858 -1.699 -1.408 -1.614 -1.684 -1.855 -0.691 -1.984 -2.054 -1.998 -2.624 -2.433 -2.506 -3.424 -3.19 -0.461 -4.997 -2.98 -5.831 -2.8 -1.015 -0.348 -4.879 -1.532 -0.356 -0.63 -0.679 -0.382 -0.826 -0.691 -0.69 -6.975 -2.398 -10.076 -0.375 -0.428 -9.531 -7.021 -8.375 -4.488 -4.403 -5.625 -9.065 -6.491 -2.864 -3.004 -2.665 -7.937 -4.882 -2.255 -0.785 -7.392 -5.793 -5.184 -0.711 -2.666 -1.065 -0.957 -0.515 -1.867 -2.079 -2.545 -2.543 -3.346 -3.29 -2.802 -3.377 -0.52 -0.651 -0.349 -1.387 -1.327 -1.882 -0.347 -0.864 -0.551 -1.647 -0.471 -11.601 -2.688 -2.685 -2.574 -2.459 -2.278 -0.467 -0.482 -0.401 -7.003 -6.896 -0.884 -3.12 -2.646 -5.175 -10.087 -6.338 -5.355 -3.414 -13.366 -12.52 -12.014 -9.741 -7.243 -6.03 -3.059 -4.684 -0.356 -2.313 -2.245 -0.414 -2.43 -3.418 -2.755 -2.72 -2.606 -1.061 -2.332 -3.504 -3.241 -13.206 -2.35 -7.193 -4.997 -7.403 -0.378 -5.469 -2.767 -3.456 -2.306 -2.329 -2.809 -2.199 -2.625 -2.617 -2.211 -3.583 -0.349 -2.335 -2.299 -3.81 -2.909 -0.377 -2.299 -3.594 -14.321 -2.434 -1.683 -3.014 -1.466 -2.855 -5.527 -2.588 -9.135 -3.006 -2.502 -2.881 -3.146 0.403 0.559 0.41 0.569 13.001 23.99 28.724 27.518 28.313 28.151 27.732 26.998 25.975 26.445 23.414 20.478 21.074 17.127 19.155 19.686 18.713 19.898 17.579 18.434 21.863 25.294 19.862 18.401 27.576 27.4 28.85 28.331 27.965 27.147 23.565 27.88 25.612 24.059 19.72 21.08 27.95 27.317 26.452 23.105 16.706 17.965 28.008 23.116 18.602 16.461 26.293 28.422 25.727 27.422 24.367 23.566 11.895 19.719 27.627 27.939 22.411 19.633 20.602 15.763 23.766 28.077 27.681 15.922 28.051 27.601 0.85 0.306 0.241 1.093 2.246 2.275 9.087 5.436 8.644 0.453 0.551 2.917 5.709 1.855 2.553 10.608 11.505 11.057 10.384 10.089 11.086 11.937 10.208 11.68 12.064 9.705 9.652 1.383 0.449 1.145 -2.265 -4.363 0.745 -3.35 3.927 2.949 2.12 3.964 0.897 1.28 1.566 -11.623 -13.036 -10.778 -11.477 -13.961 12.218 10.837 14.869 16.05 46.422 46.535 46.499 46.589 46.578 9.822 10.917 7.227 3.002 7.547 14.81 12.86 6.577 10.381 10.566 11.212 10.295 9.933 10.131 9.888 10.739 6.949 5.056 3.713 6.039 -15.938 -16.759 -13.112 -12.225 -13.705 10.162 11.508 4.379 3.677 3.522 2.866 2.673 1.531 1.203 0.101 1.482 1.672 2.77 0.911 45.393 46.039 45.812 7.549 3.539 4.035 2.403 0.729 7.132 3.936 11.976 11.27 1.639 16.538 14.327 13.297 10.99 9.822 2.285 6.682 8.2 3.09 3.391 6.208 7.336 10.926 10.937 2.14 0.8 1.313 -1.176 -2.946 0.62 -3.116 4.342 2.966 1.623 4.578 -0.501 0.274 1.246 -8.55 -7.887 -8.266 -9.059 -10.918 -10.255 18.657 17.672 11.383 12.647 45.838 45.865 45.972 45.581 45.773 46.088 7.672 15.591 11.835 8.546 3.851 14.281 6.026 10.301 5.896 8.612 11.611 4.597 0.834 7.773 16.29 15.057 11.764 6.738 3.04 2.309 0.045 1.506 -8.937 -8.09 -8.409 -9.754 -10.242 11.577 11.521 4.837 4.22 3.711 3.193 -0.992 0.194 0.483 2.584 0.253 1.524 2.088 1.187 43.179 42.835 43.848 44.92 44.465 8.969 5.2 6.338 9.302 13.786 6.558 4.811 12.649 3.029 3.488 9.925 6.12 7.353 7.737 15.933 14.311 3.411 11.905 4.241 10.476 8.567 9.931 11.866 11.595 3.245 1.71 1.516 -0.33 -2.451 0.674 -2.494 4.362 4.009 2.082 4.643 0.218 0.601 1.352 -6.849 -7.374 -8.864 -7.052 -9.884 -8.392 11.435 12.961 19.312 17.739 45.721 45.515 45.483 45.836 45.691 45.735 16.884 14.49 4.706 11.882 6.592 6.333 8.786 7.292 8.37 8.444 9.289 6.372 7.241 10.781 13.556 8.019 8.071 12.485 4.141 5.087 3.684 7.456 10.293 11.563 3.299 1.916 1.532 0.419 -2.002 0.701 -2.019 4.501 2.013 0.772 4.667 -0.614 0.508 1.627 -8.084 -8.073 -6.618 -6.653 -9.764 11.193 12.854 19.377 17.201 46.139 45.995 46.31 45.827 45.992 9.109 15.122 12.339 9.238 5.749 14.587 7.487 11.491 7.177 9.909 11.123 3.784 0.753 7.23 15.9 14.413 10.652 5.931 1.33 2.726 2.878 1.556 2.001 1.708 1.822 1.918 -6.881 -7.34 -8.103 -7.145 -8.052 -8.598 11.896 11.252 4.395 4.271 3.692 3.346 -0.289 0.345 0.319 2.594 0.591 1.304 2.319 1.669 44.414 44.033 44.197 42.902 42.116 42.591 16.857 10.554 6.765 7.976 4.798 4.898 13.723 15.621 4.254 7.007 12.469 8.926 1.035 1.731 1.643 3.262 8.216 3.605 8.993 4.942 4.628 12.749 11.442 9.303 9.89 6.832 7.232 7.486 7.57 3.318 5.505 -6.663 -6.43 -7.78 -7.307 -7.571 -6.749 -6.263 11.87 11.496 4.527 4.151 3.75 3.394 0.08 0.368 0.551 2.672 0.575 1.536 2.265 1.373 44.577 45.454 45.631 44.895 45.506 11.703 7.56 8.728 4.81 6.367 4.47 4.553 9.317 13.348 16.57 15.321 10.562 6.898 8.163 4.996 4.115 6.101 5.845 12.594 10.714 13.9 10.39 13.847 8.917 8.419 9.665 11.891 3.499 2.05 1.288 1.047 -0.812 0.532 -0.837 4.289 2.353 1.055 3.979 -0.114 0.716 1.584 -8.617 -6.013 -7.855 -5.275 -8.946 -8.243 -5.664 -6.254 11.639 19.162 18.084 17.145 18.219 10.808 14.745 13.7 15.721 13.048 16.594 19.419 46.597 46.344 46.474 46.407 46.466 16.262 14.373 15.768 10.324 11.324 9.88 9.231 8.872 5.891 8.054 12.644 8.941 6.535 9.634 8.072 16.556 14.126 13.55 13.448 11.732 7.625 5.335 6.264 12.421 10.577 9.15 9.575 8.212 10.124 11.248 10.922 3.361 2.032 1.444 0.951 -0.785 0.689 -0.492 3.918 4.188 2.435 4.237 1.312 0.836 1.631 -9.373 -5.431 -7.118 -8.681 -4.981 -6.903 12.771 16.269 14.044 19.182 11.741 18.767 10.754 13.984 19.263 17.37 11.065 46.579 46.535 46.707 46.716 46.773 46.615 46.508 15.689 8.199 4.904 6.388 13.213 13.664 11.826 11.094 8.393 8.672 13.375 15.626 10.499 3.166 3.078 2.509 7.109 9.077 6.479 4.712 9.684 11.082 6.802 3.616 3.607 1.97 2.475 1.898 8.414 13.681 3.963 4.993 12.49 10.587 13.041 9.442 -3.851 -3.516 -4.435 -4.492 -4.084 -3.733 11.986 11.5 4.611 4.203 3.721 3.413 0.35 0.366 0.472 2.456 0.637 1.486 2.687 1.537 46.251 46.028 46.091 46.186 46.111 46.089 46.112 17.483 16.344 15.829 15.02 12.422 11.533 5.298 3.432 5.364 4.441 7.586 4.728 10.079 7.956 10.208 6.241 8.855 14.959 17.343 14.45 8.243 4.35 4.474 11.033 4.459 6.776 12.035 13.089 9.953 5.718 4.979 12.245 9.223 12.748 8.364 7.727 -4.001 -4.241 -3.702 -4.085 -3.447 -3.125 -3.341 -3.332 11.73 11.536 4.433 4.67 3.346 2.317 1.315 -2.741 0.749 -2.669 3.548 2.272 1.518 1.312 1.393 0.731 46.286 46.262 46.288 46.217 46.39 46.356 46.379 46.363 16.079 14.808 13.902 12.824 10.936 7.021 4.082 3.407 7.871 4.185 4.887 9.196 8.148 29.593 43.118 44.581 40.803 41.499 39.667 41.131 36.981 43.926 37.112 31.354 43.046 38.582 28.369 30.547 25.127 8.698 10.222 23.967 36.388 29.427 18.896 24.991 26.838 23.518 34.091 37.242 34.304 26.021 4.71 6.917 12.808 14.217 16.549 3.999 6.996 14.428 18.498 18.525 16.373 14.829 17.709 19.914 18.24 18.08 43.816 43.722 43.358 41.798 42.296 24.404 28.022 19.238 19.376 20.348 23.484 21.921 18.205 15.882 24.934 26.529 16.334 25.327 27.622 7.782 7.967 5.783 -1.218 0.291 -0.835 0.527 -2.75 -1.62 -1.787 10.866 1.711 3.036 8.052 -1.482 2.607 -0.899 0.764 2.068 0.774 3.711 4.407 7.365 11.362 9.164 3.289 6.204 16.197 0.721 7.309 2.487 3.655 0.382 1.658 0.627 2.716 4.351 9.058 9.601 5.804 11.225 3.831 11.734 7.304 14.692 10.434 5.986 12.466 7.745 8.616 1.144 10.316 7.038 2.073 12.909 11.776 9.693 10.494 10.28 11.37 -3.334 6.802 3.368 1.134 11.434 3.977 1.771 0.045 -1.433 -0.454 1.732 3.516 9.491 12.73 2.718 1.127 -0.776 7.603 4.331 1.656 2.332 1.566 8.054 7.832 1.306 2.665 7.457 5.773 7.431 7.369 1.484 4.404 1.993 1.471 5.337 3.615 4.456 4.962 2.516 1.671 8.526 1.093 -2.891 13.811 2.597 1.001 3.063 9.98 2.917 0.643 -2.388 -3.586 6.358 2.992 0.665 0.362 8.53 13.462 2.829 0.871 -2.039 2.804 4.466 7.128 5.573 7.606 7.388 1.785 6.89 2.135 4.913 2.012 2.634 2.855 -2.179 12.372 11.055 8.562 11.326 3.84 9.319 7.962 7.999 5.955 4.084 -0.954 1.917 -4.134 12.293 7.945 -1.717 0.426 0.759 -1.583 3.575 4.076 2.141 3.115 3.247 3.806 3.275 2.701 3.74 2.417 2.629 3.437 7.298 7.352 5.668 7.935 6.766 4.63 5.201 6.274 3.92 5.989 6.396 10.322 11.744 7.58 2.675 9.255 12.198 14.189 11.303 15.079 11.177 7.969 18.133 14.103 4.236 7.343 0.029 4.679 -3.257 9.232 8.49 6.299 6.79 8.08 2.861 3.974 3.128 4.612 4.569 1.929 -0.2 0.806 4.684 2.611 4.247 3.963 5.585 9.196 5.828 3.713 1.371 2.093 1.621 1.61 1.166 1.665 1.603 1.651 2.669 0.478 3.298 2.842 7.754 7.716 7.604 5.884 5.46 8.441 2.513 -0.498 0.206 0.788 2.969 5.987 7.218 2.03 0.458 0.139 -0.022 -1.648 -2.596 0.862 -0.27 0.106 0.555 -0.85 -0.486 1.155 2.137 3.05 9.01 8.234 2.642 3.11 7.134 4.258 -6.212 -4.967 -5.462 -3.417 -3.474 -2.837 3.151 2.938 1.425 2.204 -3.144 -4.576 -4.872 -2.555 -4.104 -4.285 14.337 9.116 6.692 1.961 -0.761 -0.277 4.484 3.573 1.954 7.479 2.555 1.266 -0.403 3.926 0.166 -0.367 0.468 8.538 0.679 4.306 1.796 -0.695 1.148 -0.877 0.579 -2.582 4.324 1.208 2.214 -0.3 2.529 2.144 -0.281 -0.935 -1.765 -2.675 -1.246 -2.414 -1.188 -1.743 2.224 5.432 2.44 6.281 -0.004 2.253 2.127 0.642 0.632 -0.953 -1.136 2.31 5.077 5.887 2.307 -0.062 -1.19 -0.236 -0.422 2.777 1.0 -2.02 -0.146 2.069 0.85 -1.552 5.914 1.402 8.359 6.562 4.593 8.257 8.176 9.708 7.598 6.938 2.988 -0.202 6.504 8.876 5.746 2.155 8.126 2.687 11.381 4.246 0.837 -1.408 0.286 0.764 11.223 2.037 6.118 0.686 5.377 0.547 -0.61 1.178 -1.969 11.984 0.379 -0.663 -2.177 1.439 3.166 11.906 3.799 4.57 6.54 6.484 9.848 -2.778 1.167 3.97 7.662 -0.414 1.708 4.098 43.888 44.324 43.838 43.723 43.886 43.409 41.733 43.587 43.941 44.63 44.564 43.912 45.173 45.637 45.757 45.691 45.491 45.557 44.906 44.197 43.214 42.243 43.545 43.069 41.531 41.587 39.483 39.123 41.448 43.141 43.296 41.525 43.101 43.08 41.92 43.506 45.025 43.286 43.154 39.396 42.517 44.962 45.405 44.028 43.92 45.373 44.97 43.649 39.05 42.942 43.196 42.12 41.052 42.768 42.715 41.39 44.694 41.721 42.207 44.41 43.549 44.15 43.455 44.29 12.007 3.56 1.848 0.814 -2.47 12.012 0.952 9.642 -0.169 -0.882 3.578 -11.489 -11.343 -11.704 -10.151 -12.325 -10.558 -10.723 -7.608 -6.017 -8.214 -4.927 -3.659 -4.404 -3.113 -2.692 -3.761 -6.194 -9.707 -22.39 -26.095 -23.493 -21.119 -9.214 -13.125 -12.152 -11.455 -6.103 -10.141 -6.275 -9.687 -2.94 -10.774 -9.83 -5.267 -11.95 -3.771 -6.364 -5.457 -3.414 -13.646 -11.684 -9.191 -3.442 -6.09 -3.611 -3.309 -6.516 -4.085 -7.434 -2.904 -2.722 -2.449 -5.521 -4.161 -4.012 -4.081 -8.029 -6.436 -11.702 -17.218 -18.786 -24.801 -19.439 -15.481 -15.831 -16.345 -13.853 -6.645 -5.322 -5.77 -5.373 -7.842 -5.532 -6.552 -6.147 -6.778 -3.358 -8.14 -3.606 -13.358 -12.143 -13.307 -3.855 -4.279 -4.387 -7.473 -7.142 -11.852 -3.285 -10.889 -18.753 -16.738 -14.728 -19.713 -22.021 -9.805 -8.24 -4.026 -2.583 -9.077 -15.675 -14.349 -14.107 -21.338 -9.578 -25.277 -3.39 -4.051 -5.324 -3.5 -12.402 -2.428 -16.398 -17.622 -8.286 -4.556 -4.405 -3.887 -4.342 -6.321 -8.37 -1.525 4.362 10.597 12.931 4.555 1.563 0.661 1.501 5.588 8.474 1.675 1.466 8.413 6.364 1.679 8.581 1.616 1.636 2.933 8.204 8.026 1.921 2.388 3.481 2.491 5.337 8.295 8.417 3.536 5.487 5.575 7.992 7.823 7.65 6.455 6.49 -10